TITLE = "Flow data at observation well: sat_prof"
VARIABLES="H","P","S","VWC","Ho","Po","X","Y","Z","Zsurf","Node"
DATASETAUXDATA Source="HydroGeoSphere, Aquanty Inc."
DATASETAUXDATA HGS_Version="2845"
DATASETAUXDATA Date_Created="2025-07-26T16:55:29+02:00"
DATASETAUXDATA Model_Prefix="lys_e_day0"
DATASETAUXDATA Mass_Base_Unit="kg"
DATASETAUXDATA Length_Base_Unit="m"
DATASETAUXDATA Time_Base_Unit="d"
DATASETAUXDATA Temperature_Base_Unit="deg C"
# H units: (m)
# P units: (m)
# S units: (-)
# VWC units: (-)
# Ho units: (m)
# Po units: (m)
# X units: (m)
# Y units: (m)
# Z units: (m)
# Zsurf units: (m)
VARAUXDATA 1 Units="(m)"
VARAUXDATA 2 Units="(m)"
VARAUXDATA 3 Units="(-)"
VARAUXDATA 4 Units="(-)"
VARAUXDATA 5 Units="(m)"
VARAUXDATA 6 Units="(m)"
VARAUXDATA 7 Units="(m)"
VARAUXDATA 8 Units="(m)"
VARAUXDATA 9 Units="(m)"
VARAUXDATA 10 Units="(m)"
ZONE T="sat_prof", SOLUTIONTIME=1.157407000000000E-005, I=13
   3.0000000000E-001   3.0000000000E-001   1.0000000000E+000   4.3999999762E-001  -9.9900000000E+002  -9.9900000000E+002   0.0000000000E+000   0.0000000000E+000   0.0000000000E+000   3.0000000000E+000  1
  -1.6923516478E+000  -2.1923516478E+000   5.7000000000E-001   2.5079999864E-001  -9.9900000000E+002  -9.9900000000E+002   0.0000000000E+000   0.0000000000E+000   5.0000000000E-001   3.0000000000E+000  10
  -1.1923516478E+000  -2.1923516478E+000   5.7000000000E-001   2.5079999864E-001  -9.9900000000E+002  -9.9900000000E+002   0.0000000000E+000   0.0000000000E+000   1.0000000000E+000   3.0000000000E+000  19
  -6.9235164784E-001  -2.1923516478E+000   5.7000000000E-001   2.5079999864E-001  -9.9900000000E+002  -9.9900000000E+002   0.0000000000E+000   0.0000000000E+000   1.5000000000E+000   3.0000000000E+000  28
  -3.9235164784E-001  -2.1923516478E+000   5.7000000000E-001   2.5079999864E-001  -9.9900000000E+002  -9.9900000000E+002   0.0000000000E+000   0.0000000000E+000   1.8000000000E+000   3.0000000000E+000  37
  -9.2351739032E-002  -2.1923517390E+000   5.6999999136E-001   2.5079999484E-001  -9.9900000000E+002  -9.9900000000E+002   0.0000000000E+000   0.0000000000E+000   2.1000000000E+000   3.0000000000E+000  46
  -2.0647273838E-001  -2.4564727384E+000   5.4666665436E-001   2.4053332662E-001  -9.9900000000E+002  -9.9900000000E+002   0.0000000000E+000   0.0000000000E+000   2.2500000000E+000   3.0000000000E+000  55
  -7.1823389340E-001  -3.1182338934E+000   5.0000002043E-001   2.2000000780E-001  -9.9900000000E+002  -9.9900000000E+002   0.0000000000E+000   0.0000000000E+000   2.4000000000E+000   3.0000000000E+000  64
  -5.6823406771E-001  -3.1182340677E+000   5.0000000989E-001   2.2000000316E-001  -9.9900000000E+002  -9.9900000000E+002   0.0000000000E+000   0.0000000000E+000   2.5500000000E+000   3.0000000000E+000  73
  -6.1846466992E-002  -2.7618464670E+000   5.2333333529E-001   2.8364666548E-001  -9.9900000000E+002  -9.9900000000E+002   0.0000000000E+000   0.0000000000E+000   2.7000000000E+000   3.0000000000E+000  82
   3.7318414585E-001  -2.4768158541E+000   5.4499997805E-001   3.5097998248E-001  -9.9900000000E+002  -9.9900000000E+002   0.0000000000E+000   0.0000000000E+000   2.8500000000E+000   3.0000000000E+000  91
   1.4062565949E-001  -2.8093743405E+000   5.2000002106E-001   3.3488001034E-001  -9.9900000000E+002  -9.9900000000E+002   0.0000000000E+000   0.0000000000E+000   2.9500000000E+000   3.0000000000E+000  100
   1.9062514908E-001  -2.8093748509E+000   5.1999998566E-001   3.3487998754E-001   3.0000000001E+000   1.0000000000E-010   0.0000000000E+000   0.0000000000E+000   3.0000000000E+000   3.0000000000E+000  109
ZONE T="sat_prof", SOLUTIONTIME=3.849051186046511E-005, I=13
   3.0000000000E-001   3.0000000000E-001   1.0000000000E+000   4.3999999762E-001  -9.9900000000E+002  -9.9900000000E+002   0.0000000000E+000   0.0000000000E+000   0.0000000000E+000   3.0000000000E+000  1
  -1.6922488777E+000  -2.1922488777E+000   5.7000974168E-001   2.5080428498E-001  -9.9900000000E+002  -9.9900000000E+002   0.0000000000E+000   0.0000000000E+000   5.0000000000E-001   3.0000000000E+000  10
  -1.1923516478E+000  -2.1923516478E+000   5.7000000000E-001   2.5079999864E-001  -9.9900000000E+002  -9.9900000000E+002   0.0000000000E+000   0.0000000000E+000   1.0000000000E+000   3.0000000000E+000  19
  -6.9235164784E-001  -2.1923516478E+000   5.7000000000E-001   2.5079999864E-001  -9.9900000000E+002  -9.9900000000E+002   0.0000000000E+000   0.0000000000E+000   1.5000000000E+000   3.0000000000E+000  28
  -3.9235164784E-001  -2.1923516478E+000   5.7000000000E-001   2.5079999864E-001  -9.9900000000E+002  -9.9900000000E+002   0.0000000000E+000   0.0000000000E+000   1.8000000000E+000   3.0000000000E+000  37
  -9.2351951386E-002  -2.1923519514E+000   5.6999997123E-001   2.5079998598E-001  -9.9900000000E+002  -9.9900000000E+002   0.0000000000E+000   0.0000000000E+000   2.1000000000E+000   3.0000000000E+000  46
  -2.0647308633E-001  -2.4564730863E+000   5.4666662571E-001   2.4053331401E-001  -9.9900000000E+002  -9.9900000000E+002   0.0000000000E+000   0.0000000000E+000   2.2500000000E+000   3.0000000000E+000  55
  -7.1823310633E-001  -3.1182331063E+000   5.0000006802E-001   2.2000002874E-001  -9.9900000000E+002  -9.9900000000E+002   0.0000000000E+000   0.0000000000E+000   2.4000000000E+000   3.0000000000E+000  64
  -5.6823368679E-001  -3.1182336868E+000   5.0000003292E-001   2.2000001329E-001  -9.9900000000E+002  -9.9900000000E+002   0.0000000000E+000   0.0000000000E+000   2.5500000000E+000   3.0000000000E+000  73
  -6.1846402618E-002  -2.7618464026E+000   5.2333333986E-001   2.8364666796E-001  -9.9900000000E+002  -9.9900000000E+002   0.0000000000E+000   0.0000000000E+000   2.7000000000E+000   3.0000000000E+000  82
   3.7318351877E-001  -2.4768164812E+000   5.4499992694E-001   3.5097994957E-001  -9.9900000000E+002  -9.9900000000E+002   0.0000000000E+000   0.0000000000E+000   2.8500000000E+000   3.0000000000E+000  91
   1.4062636642E-001  -2.8093736336E+000   5.2000007009E-001   3.3488004192E-001  -9.9900000000E+002  -9.9900000000E+002   0.0000000000E+000   0.0000000000E+000   2.9500000000E+000   3.0000000000E+000  100
   1.9062466766E-001  -2.8093753323E+000   5.1999995227E-001   3.3487996604E-001   3.0000000001E+000   1.0000000000E-010   0.0000000000E+000   0.0000000000E+000   3.0000000000E+000   3.0000000000E+000  109
ZONE T="sat_prof", SOLUTIONTIME=1.057816165116279E-004, I=13
   3.0000000000E-001   3.0000000000E-001   1.0000000000E+000   4.3999999762E-001  -9.9900000000E+002  -9.9900000000E+002   0.0000000000E+000   0.0000000000E+000   0.0000000000E+000   3.0000000000E+000  1
  -1.6919920112E+000  -2.1919920112E+000   5.7003409275E-001   2.5081499945E-001  -9.9900000000E+002  -9.9900000000E+002   0.0000000000E+000   0.0000000000E+000   5.0000000000E-001   3.0000000000E+000  10
  -1.1923516477E+000  -2.1923516477E+000   5.7000000001E-001   2.5079999865E-001  -9.9900000000E+002  -9.9900000000E+002   0.0000000000E+000   0.0000000000E+000   1.0000000000E+000   3.0000000000E+000  19
  -6.9235164784E-001  -2.1923516478E+000   5.7000000000E-001   2.5079999864E-001  -9.9900000000E+002  -9.9900000000E+002   0.0000000000E+000   0.0000000000E+000   1.5000000000E+000   3.0000000000E+000  28
  -3.9235164785E-001  -2.1923516478E+000   5.7000000000E-001   2.5079999864E-001  -9.9900000000E+002  -9.9900000000E+002   0.0000000000E+000   0.0000000000E+000   1.8000000000E+000   3.0000000000E+000  37
  -9.2352482271E-002  -2.1923524823E+000   5.6999992091E-001   2.5079996384E-001  -9.9900000000E+002  -9.9900000000E+002   0.0000000000E+000   0.0000000000E+000   2.1000000000E+000   3.0000000000E+000  46
  -2.0647395619E-001  -2.4564739562E+000   5.4666655407E-001   2.4053328249E-001  -9.9900000000E+002  -9.9900000000E+002   0.0000000000E+000   0.0000000000E+000   2.2500000000E+000   3.0000000000E+000  55
  -7.1823113867E-001  -3.1182311387E+000   5.0000018701E-001   2.2000008109E-001  -9.9900000000E+002  -9.9900000000E+002   0.0000000000E+000   0.0000000000E+000   2.4000000000E+000   3.0000000000E+000  64
  -5.6823273447E-001  -3.1182327345E+000   5.0000009051E-001   2.2000003863E-001  -9.9900000000E+002  -9.9900000000E+002   0.0000000000E+000   0.0000000000E+000   2.5500000000E+000   3.0000000000E+000  73
  -6.1846241687E-002  -2.7618462417E+000   5.2333335127E-001   2.8364667414E-001  -9.9900000000E+002  -9.9900000000E+002   0.0000000000E+000   0.0000000000E+000   2.7000000000E+000   3.0000000000E+000  82
   3.7318195109E-001  -2.4768180489E+000   5.4499979916E-001   3.5097986728E-001  -9.9900000000E+002  -9.9900000000E+002   0.0000000000E+000   0.0000000000E+000   2.8500000000E+000   3.0000000000E+000  91
   1.4062813370E-001  -2.8093718663E+000   5.2000019268E-001   3.3488012086E-001  -9.9900000000E+002  -9.9900000000E+002   0.0000000000E+000   0.0000000000E+000   2.9500000000E+000   3.0000000000E+000  100
   1.9062346417E-001  -2.8093765358E+000   5.1999986879E-001   3.3487991228E-001   3.0000000001E+000   1.0000000000E-010   0.0000000000E+000   0.0000000000E+000   3.0000000000E+000   3.0000000000E+000  109
ZONE T="sat_prof", SOLUTIONTIME=2.740093781395348E-004, I=13
   3.0000000000E-001   3.0000000000E-001   1.0000000000E+000   4.3999999762E-001  -9.9900000000E+002  -9.9900000000E+002   0.0000000000E+000   0.0000000000E+000   0.0000000000E+000   3.0000000000E+000  1
  -1.6913502116E+000  -2.1913502116E+000   5.7009495079E-001   2.5084177699E-001  -9.9900000000E+002  -9.9900000000E+002   0.0000000000E+000   0.0000000000E+000   5.0000000000E-001   3.0000000000E+000  10
  -1.1923516471E+000  -2.1923516471E+000   5.7000000007E-001   2.5079999867E-001  -9.9900000000E+002  -9.9900000000E+002   0.0000000000E+000   0.0000000000E+000   1.0000000000E+000   3.0000000000E+000  19
  -6.9235164784E-001  -2.1923516478E+000   5.7000000000E-001   2.5079999864E-001  -9.9900000000E+002  -9.9900000000E+002   0.0000000000E+000   0.0000000000E+000   1.5000000000E+000   3.0000000000E+000  28
  -3.9235164785E-001  -2.1923516479E+000   5.7000000000E-001   2.5079999864E-001  -9.9900000000E+002  -9.9900000000E+002   0.0000000000E+000   0.0000000000E+000   1.8000000000E+000   3.0000000000E+000  37
  -9.2353809483E-002  -2.1923538095E+000   5.6999979510E-001   2.5079990849E-001  -9.9900000000E+002  -9.9900000000E+002   0.0000000000E+000   0.0000000000E+000   2.1000000000E+000   3.0000000000E+000  46
  -2.0647613077E-001  -2.4564761308E+000   5.4666637499E-001   2.4053320369E-001  -9.9900000000E+002  -9.9900000000E+002   0.0000000000E+000   0.0000000000E+000   2.2500000000E+000   3.0000000000E+000  55
  -7.1822621961E-001  -3.1182262196E+000   5.0000048447E-001   2.2000021198E-001  -9.9900000000E+002  -9.9900000000E+002   0.0000000000E+000   0.0000000000E+000   2.4000000000E+000   3.0000000000E+000  64
  -5.6823035369E-001  -3.1182303537E+000   5.0000023448E-001   2.2000010198E-001  -9.9900000000E+002  -9.9900000000E+002   0.0000000000E+000   0.0000000000E+000   2.5500000000E+000   3.0000000000E+000  73
  -6.1845839388E-002  -2.7618458394E+000   5.2333337980E-001   2.8364668961E-001  -9.9900000000E+002  -9.9900000000E+002   0.0000000000E+000   0.0000000000E+000   2.7000000000E+000   3.0000000000E+000  82
   3.7317803198E-001  -2.4768219680E+000   5.4499947974E-001   3.5097966157E-001  -9.9900000000E+002  -9.9900000000E+002   0.0000000000E+000   0.0000000000E+000   2.8500000000E+000   3.0000000000E+000  91
   1.4063255159E-001  -2.8093674484E+000   5.2000049911E-001   3.3488031820E-001  -9.9900000000E+002  -9.9900000000E+002   0.0000000000E+000   0.0000000000E+000   2.9500000000E+000   3.0000000000E+000  100
   1.9062045590E-001  -2.8093795441E+000   5.1999966013E-001   3.3487977790E-001   3.0000000001E+000   1.0000000000E-010   0.0000000000E+000   0.0000000000E+000   3.0000000000E+000   3.0000000000E+000  109
ZONE T="sat_prof", SOLUTIONTIME=6.945787822093023E-004, I=13
   3.0000000000E-001   3.0000000000E-001   1.0000000000E+000   4.3999999762E-001  -9.9900000000E+002  -9.9900000000E+002   0.0000000000E+000   0.0000000000E+000   0.0000000000E+000   3.0000000000E+000  1
  -1.6897480010E+000  -2.1897480010E+000   5.7024697340E-001   2.5090866694E-001  -9.9900000000E+002  -9.9900000000E+002   0.0000000000E+000   0.0000000000E+000   5.0000000000E-001   3.0000000000E+000  10
  -1.1923516426E+000  -2.1923516426E+000   5.7000000049E-001   2.5079999886E-001  -9.9900000000E+002  -9.9900000000E+002   0.0000000000E+000   0.0000000000E+000   1.0000000000E+000   3.0000000000E+000  19
  -6.9235164784E-001  -2.1923516478E+000   5.7000000000E-001   2.5079999864E-001  -9.9900000000E+002  -9.9900000000E+002   0.0000000000E+000   0.0000000000E+000   1.5000000000E+000   3.0000000000E+000  28
  -3.9235164789E-001  -2.1923516479E+000   5.7000000000E-001   2.5079999864E-001  -9.9900000000E+002  -9.9900000000E+002   0.0000000000E+000   0.0000000000E+000   1.8000000000E+000   3.0000000000E+000  37
  -9.2357127509E-002  -2.1923571275E+000   5.6999948059E-001   2.5079977010E-001  -9.9900000000E+002  -9.9900000000E+002   0.0000000000E+000   0.0000000000E+000   2.1000000000E+000   3.0000000000E+000  46
  -2.0648156688E-001  -2.4564815669E+000   5.4666592730E-001   2.4053300671E-001  -9.9900000000E+002  -9.9900000000E+002   0.0000000000E+000   0.0000000000E+000   2.2500000000E+000   3.0000000000E+000  55
  -7.1821392250E-001  -3.1182139225E+000   5.0000122810E-001   2.2000053917E-001  -9.9900000000E+002  -9.9900000000E+002   0.0000000000E+000   0.0000000000E+000   2.4000000000E+000   3.0000000000E+000  64
  -5.6822440176E-001  -3.1182244018E+000   5.0000059440E-001   2.2000026034E-001  -9.9900000000E+002  -9.9900000000E+002   0.0000000000E+000   0.0000000000E+000   2.5500000000E+000   3.0000000000E+000  73
  -6.1844833823E-002  -2.7618448338E+000   5.2333345111E-001   2.8364672826E-001  -9.9900000000E+002  -9.9900000000E+002   0.0000000000E+000   0.0000000000E+000   2.7000000000E+000   3.0000000000E+000  82
   3.7316823482E-001  -2.4768317652E+000   5.4499868123E-001   3.5097914734E-001  -9.9900000000E+002  -9.9900000000E+002   0.0000000000E+000   0.0000000000E+000   2.8500000000E+000   3.0000000000E+000  91
   1.4064359448E-001  -2.8093564055E+000   5.2000126507E-001   3.3488081148E-001  -9.9900000000E+002  -9.9900000000E+002   0.0000000000E+000   0.0000000000E+000   2.9500000000E+000   3.0000000000E+000  100
   1.9061293805E-001  -2.8093870619E+000   5.1999913868E-001   3.3487944209E-001   3.0000000001E+000   1.0000000000E-010   0.0000000000E+000   0.0000000000E+000   3.0000000000E+000   3.0000000000E+000  109
ZONE T="sat_prof", SOLUTIONTIME=1.746002292383721E-003, I=13
   3.0000000000E-001   3.0000000000E-001   1.0000000000E+000   4.3999999762E-001  -9.9900000000E+002  -9.9900000000E+002   0.0000000000E+000   0.0000000000E+000   0.0000000000E+000   3.0000000000E+000  1
  -1.6857567097E+000  -2.1857567097E+000   5.7062626718E-001   2.5107555620E-001  -9.9900000000E+002  -9.9900000000E+002   0.0000000000E+000   0.0000000000E+000   5.0000000000E-001   3.0000000000E+000  10
  -1.1923516147E+000  -2.1923516147E+000   5.7000000314E-001   2.5080000002E-001  -9.9900000000E+002  -9.9900000000E+002   0.0000000000E+000   0.0000000000E+000   1.0000000000E+000   3.0000000000E+000  19
  -6.9235164784E-001  -2.1923516478E+000   5.7000000000E-001   2.5079999864E-001  -9.9900000000E+002  -9.9900000000E+002   0.0000000000E+000   0.0000000000E+000   1.5000000000E+000   3.0000000000E+000  28
  -3.9235164811E-001  -2.1923516481E+000   5.6999999997E-001   2.5079999863E-001  -9.9900000000E+002  -9.9900000000E+002   0.0000000000E+000   0.0000000000E+000   1.8000000000E+000   3.0000000000E+000  37
  -9.2365422542E-002  -2.1923654225E+000   5.6999869432E-001   2.5079942414E-001  -9.9900000000E+002  -9.9900000000E+002   0.0000000000E+000   0.0000000000E+000   2.1000000000E+000   3.0000000000E+000  46
  -2.0649515496E-001  -2.4564951550E+000   5.4666480827E-001   2.4053251433E-001  -9.9900000000E+002  -9.9900000000E+002   0.0000000000E+000   0.0000000000E+000   2.2500000000E+000   3.0000000000E+000  55
  -7.1818318313E-001  -3.1181831831E+000   5.0000308698E-001   2.2000135708E-001  -9.9900000000E+002  -9.9900000000E+002   0.0000000000E+000   0.0000000000E+000   2.4000000000E+000   3.0000000000E+000  64
  -5.6820952205E-001  -3.1182095220E+000   5.0000149421E-001   2.2000065626E-001  -9.9900000000E+002  -9.9900000000E+002   0.0000000000E+000   0.0000000000E+000   2.5500000000E+000   3.0000000000E+000  73
  -6.1842321053E-002  -2.7618423211E+000   5.2333362930E-001   2.8364682484E-001  -9.9900000000E+002  -9.9900000000E+002   0.0000000000E+000   0.0000000000E+000   2.7000000000E+000   3.0000000000E+000  82
   3.7314374571E-001  -2.4768562543E+000   5.4499668529E-001   3.5097786195E-001  -9.9900000000E+002  -9.9900000000E+002   0.0000000000E+000   0.0000000000E+000   2.8500000000E+000   3.0000000000E+000  91
   1.4067119009E-001  -2.8093288099E+000   5.2000317919E-001   3.3488204417E-001  -9.9900000000E+002  -9.9900000000E+002   0.0000000000E+000   0.0000000000E+000   2.9500000000E+000   3.0000000000E+000  100
   1.9059416115E-001  -2.8094058389E+000   5.1999783629E-001   3.3487860335E-001   3.0000000001E+000   1.0000000000E-010   0.0000000000E+000   0.0000000000E+000   3.0000000000E+000   3.0000000000E+000  109
ZONE T="sat_prof", SOLUTIONTIME=4.374561067819767E-003, I=13
   3.0000000000E-001   3.0000000000E-001   1.0000000000E+000   4.3999999762E-001  -9.9900000000E+002  -9.9900000000E+002   0.0000000000E+000   0.0000000000E+000   0.0000000000E+000   3.0000000000E+000  1
  -1.6758664085E+000  -2.1758664085E+000   5.7156977749E-001   2.5149070073E-001  -9.9900000000E+002  -9.9900000000E+002   0.0000000000E+000   0.0000000000E+000   5.0000000000E-001   3.0000000000E+000  10
  -1.1923514399E+000  -2.1923514399E+000   5.7000001971E-001   2.5080000731E-001  -9.9900000000E+002  -9.9900000000E+002   0.0000000000E+000   0.0000000000E+000   1.0000000000E+000   3.0000000000E+000  19
  -6.9235164784E-001  -2.1923516478E+000   5.7000000000E-001   2.5079999864E-001  -9.9900000000E+002  -9.9900000000E+002   0.0000000000E+000   0.0000000000E+000   1.5000000000E+000   3.0000000000E+000  28
  -3.9235164954E-001  -2.1923516495E+000   5.6999999984E-001   2.5079999857E-001  -9.9900000000E+002  -9.9900000000E+002   0.0000000000E+000   0.0000000000E+000   1.8000000000E+000   3.0000000000E+000  37
  -9.2386159912E-002  -2.1923861599E+000   5.6999672869E-001   2.5079855926E-001  -9.9900000000E+002  -9.9900000000E+002   0.0000000000E+000   0.0000000000E+000   2.1000000000E+000   3.0000000000E+000  46
  -2.0652911141E-001  -2.4565291114E+000   5.4666201186E-001   2.4053128391E-001  -9.9900000000E+002  -9.9900000000E+002   0.0000000000E+000   0.0000000000E+000   2.2500000000E+000   3.0000000000E+000  55
  -7.1810635615E-001  -3.1181063561E+000   5.0000773300E-001   2.2000340133E-001  -9.9900000000E+002  -9.9900000000E+002   0.0000000000E+000   0.0000000000E+000   2.4000000000E+000   3.0000000000E+000  64
  -5.6817232361E-001  -3.1181723236E+000   5.0000374369E-001   2.2000164603E-001  -9.9900000000E+002  -9.9900000000E+002   0.0000000000E+000   0.0000000000E+000   2.5500000000E+000   3.0000000000E+000  73
  -6.1836046258E-002  -2.7618360463E+000   5.2333407428E-001   2.8364706601E-001  -9.9900000000E+002  -9.9900000000E+002   0.0000000000E+000   0.0000000000E+000   2.7000000000E+000   3.0000000000E+000  82
   3.7308254672E-001  -2.4769174533E+000   5.4499169749E-001   3.5097464980E-001  -9.9900000000E+002  -9.9900000000E+002   0.0000000000E+000   0.0000000000E+000   2.8500000000E+000   3.0000000000E+000  91
   1.4074010664E-001  -2.8092598934E+000   5.2000795956E-001   3.3488512273E-001  -9.9900000000E+002  -9.9900000000E+002   0.0000000000E+000   0.0000000000E+000   2.9500000000E+000   3.0000000000E+000  100
   1.9054732943E-001  -2.8094526706E+000   5.1999458803E-001   3.3487651147E-001   3.0000000001E+000   1.0000000000E-010   0.0000000000E+000   0.0000000000E+000   3.0000000000E+000   3.0000000000E+000  109
ZONE T="sat_prof", SOLUTIONTIME=1.094595800640988E-002, I=13
   3.0000000000E-001   3.0000000000E-001   1.0000000000E+000   4.3999999762E-001  -9.9900000000E+002  -9.9900000000E+002   0.0000000000E+000   0.0000000000E+000   0.0000000000E+000   3.0000000000E+000  1
  -1.6516742704E+000  -2.1516742704E+000   5.7389969894E-001   2.5251586617E-001  -9.9900000000E+002  -9.9900000000E+002   0.0000000000E+000   0.0000000000E+000   5.0000000000E-001   3.0000000000E+000  10
  -1.1923503621E+000  -2.1923503621E+000   5.7000012187E-001   2.5080005226E-001  -9.9900000000E+002  -9.9900000000E+002   0.0000000000E+000   0.0000000000E+000   1.0000000000E+000   3.0000000000E+000  19
  -6.9235164780E-001  -2.1923516478E+000   5.7000000000E-001   2.5079999864E-001  -9.9900000000E+002  -9.9900000000E+002   0.0000000000E+000   0.0000000000E+000   1.5000000000E+000   3.0000000000E+000  28
  -3.9235165846E-001  -2.1923516585E+000   5.6999999899E-001   2.5079999820E-001  -9.9900000000E+002  -9.9900000000E+002   0.0000000000E+000   0.0000000000E+000   1.8000000000E+000   3.0000000000E+000  37
  -9.2438001956E-002  -2.1924380020E+000   5.6999181484E-001   2.5079639717E-001  -9.9900000000E+002  -9.9900000000E+002   0.0000000000E+000   0.0000000000E+000   2.1000000000E+000   3.0000000000E+000  46
  -2.0661391667E-001  -2.4566139167E+000   5.4665502811E-001   2.4052821107E-001  -9.9900000000E+002  -9.9900000000E+002   0.0000000000E+000   0.0000000000E+000   2.2500000000E+000   3.0000000000E+000  55
  -7.1791442252E-001  -3.1179144225E+000   5.0001934060E-001   2.2000850867E-001  -9.9900000000E+002  -9.9900000000E+002   0.0000000000E+000   0.0000000000E+000   2.4000000000E+000   3.0000000000E+000  64
  -5.6807933283E-001  -3.1180793328E+000   5.0000936723E-001   2.2000412039E-001  -9.9900000000E+002  -9.9900000000E+002   0.0000000000E+000   0.0000000000E+000   2.5500000000E+000   3.0000000000E+000  73
  -6.1820403764E-002  -2.7618204038E+000   5.2333518357E-001   2.8364766725E-001  -9.9900000000E+002  -9.9900000000E+002   0.0000000000E+000   0.0000000000E+000   2.7000000000E+000   3.0000000000E+000  82
   3.7292969770E-001  -2.4770703023E+000   5.4497924076E-001   3.5096662767E-001  -9.9900000000E+002  -9.9900000000E+002   0.0000000000E+000   0.0000000000E+000   2.8500000000E+000   3.0000000000E+000  91
   1.4091194631E-001  -2.8090880537E+000   5.2001987981E-001   3.3489279938E-001  -9.9900000000E+002  -9.9900000000E+002   0.0000000000E+000   0.0000000000E+000   2.9500000000E+000   3.0000000000E+000  100
   1.9043093834E-001  -2.8095690617E+000   5.1998651541E-001   3.3487131270E-001   3.0000000001E+000   1.0000000000E-010   0.0000000000E+000   0.0000000000E+000   3.0000000000E+000   3.0000000000E+000  109
ZONE T="sat_prof", SOLUTIONTIME=2.737445035288517E-002, I=13
   3.0000000000E-001   3.0000000000E-001   1.0000000000E+000   4.3999999762E-001  -9.9900000000E+002  -9.9900000000E+002   0.0000000000E+000   0.0000000000E+000   0.0000000000E+000   3.0000000000E+000  1
  -1.5943092280E+000  -2.0943092280E+000   5.7955297091E-001   2.5500330582E-001  -9.9900000000E+002  -9.9900000000E+002   0.0000000000E+000   0.0000000000E+000   5.0000000000E-001   3.0000000000E+000  10
  -1.1923438683E+000  -2.1923438683E+000   5.7000073741E-001   2.5080032310E-001  -9.9900000000E+002  -9.9900000000E+002   0.0000000000E+000   0.0000000000E+000   1.0000000000E+000   3.0000000000E+000  19
  -6.9235164717E-001  -2.1923516472E+000   5.7000000006E-001   2.5079999867E-001  -9.9900000000E+002  -9.9900000000E+002   0.0000000000E+000   0.0000000000E+000   1.5000000000E+000   3.0000000000E+000  28
  -3.9235171420E-001  -2.1923517142E+000   5.6999999371E-001   2.5079999587E-001  -9.9900000000E+002  -9.9900000000E+002   0.0000000000E+000   0.0000000000E+000   1.8000000000E+000   3.0000000000E+000  37
  -9.2567600242E-002  -2.1925676002E+000   5.6997953146E-001   2.5079099248E-001  -9.9900000000E+002  -9.9900000000E+002   0.0000000000E+000   0.0000000000E+000   2.1000000000E+000   3.0000000000E+000  46
  -2.0682539847E-001  -2.4568253985E+000   5.4663761383E-001   2.4052054878E-001  -9.9900000000E+002  -9.9900000000E+002   0.0000000000E+000   0.0000000000E+000   2.2500000000E+000   3.0000000000E+000  55
  -7.1743541244E-001  -3.1174354124E+000   5.0004831392E-001   2.2002125693E-001  -9.9900000000E+002  -9.9900000000E+002   0.0000000000E+000   0.0000000000E+000   2.4000000000E+000   3.0000000000E+000  64
  -5.6784688447E-001  -3.1178468845E+000   5.0002342534E-001   2.2001030596E-001  -9.9900000000E+002  -9.9900000000E+002   0.0000000000E+000   0.0000000000E+000   2.5500000000E+000   3.0000000000E+000  73
  -6.1781573710E-002  -2.7617815737E+000   5.2333793726E-001   2.8364915975E-001  -9.9900000000E+002  -9.9900000000E+002   0.0000000000E+000   0.0000000000E+000   2.7000000000E+000   3.0000000000E+000  82
   3.7254849442E-001  -2.4774515056E+000   5.4494817807E-001   3.5094662330E-001  -9.9900000000E+002  -9.9900000000E+002   0.0000000000E+000   0.0000000000E+000   2.8500000000E+000   3.0000000000E+000  91
   1.4133875006E-001  -2.8086612499E+000   5.2004949064E-001   3.3491186875E-001  -9.9900000000E+002  -9.9900000000E+002   0.0000000000E+000   0.0000000000E+000   2.9500000000E+000   3.0000000000E+000  100
   1.9014421427E-001  -2.8098557857E+000   5.1996663076E-001   3.3485850698E-001   3.0000000001E+000   1.0000000000E-010   0.0000000000E+000   0.0000000000E+000   3.0000000000E+000   3.0000000000E+000  109
ZONE T="sat_prof", SOLUTIONTIME=6.844568121907339E-002, I=13
   3.0000000000E-001   3.0000000000E-001   1.0000000000E+000   4.3999999762E-001  -9.9900000000E+002  -9.9900000000E+002   0.0000000000E+000   0.0000000000E+000   0.0000000000E+000   3.0000000000E+000  1
  -1.4674412662E+000  -1.9674412662E+000   5.9273858117E-001   2.6080497430E-001  -9.9900000000E+002  -9.9900000000E+002   0.0000000000E+000   0.0000000000E+000   5.0000000000E-001   3.0000000000E+000  10
  -1.1923066369E+000  -2.1923066369E+000   5.7000426657E-001   2.5080187593E-001  -9.9900000000E+002  -9.9900000000E+002   0.0000000000E+000   0.0000000000E+000   1.0000000000E+000   3.0000000000E+000  19
  -6.9235163806E-001  -2.1923516381E+000   5.7000000093E-001   2.5079999905E-001  -9.9900000000E+002  -9.9900000000E+002   0.0000000000E+000   0.0000000000E+000   1.5000000000E+000   3.0000000000E+000  28
  -3.9235206217E-001  -2.1923520622E+000   5.6999996073E-001   2.5079998136E-001  -9.9900000000E+002  -9.9900000000E+002   0.0000000000E+000   0.0000000000E+000   1.8000000000E+000   3.0000000000E+000  37
  -9.2891544039E-002  -2.1928915440E+000   5.6994883181E-001   2.5077748464E-001  -9.9900000000E+002  -9.9900000000E+002   0.0000000000E+000   0.0000000000E+000   2.1000000000E+000   3.0000000000E+000  46
  -2.0735079595E-001  -2.4573507959E+000   5.4659435859E-001   2.4050151648E-001  -9.9900000000E+002  -9.9900000000E+002   0.0000000000E+000   0.0000000000E+000   2.2500000000E+000   3.0000000000E+000  55
  -7.1624303310E-001  -3.1162430331E+000   5.0012046168E-001   2.2005300195E-001  -9.9900000000E+002  -9.9900000000E+002   0.0000000000E+000   0.0000000000E+000   2.4000000000E+000   3.0000000000E+000  64
  -5.6726596481E-001  -3.1172659648E+000   5.0005856452E-001   2.2002576720E-001  -9.9900000000E+002  -9.9900000000E+002   0.0000000000E+000   0.0000000000E+000   2.5500000000E+000   3.0000000000E+000  73
  -6.1686206182E-002  -2.7616862062E+000   5.2334470059E-001   2.8365282547E-001  -9.9900000000E+002  -9.9900000000E+002   0.0000000000E+000   0.0000000000E+000   2.7000000000E+000   3.0000000000E+000  82
   3.7160118123E-001  -2.4783988188E+000   5.4487101148E-001   3.5089692802E-001  -9.9900000000E+002  -9.9900000000E+002   0.0000000000E+000   0.0000000000E+000   2.8500000000E+000   3.0000000000E+000  91
   1.4238861369E-001  -2.8076113863E+000   5.2012235306E-001   3.3495879215E-001  -9.9900000000E+002  -9.9900000000E+002   0.0000000000E+000   0.0000000000E+000   2.9500000000E+000   3.0000000000E+000  100
   1.8945333248E-001  -2.8105466675E+000   5.1991872812E-001   3.3482765769E-001   3.0000000001E+000   1.0000000000E-010   0.0000000000E+000   0.0000000000E+000   3.0000000000E+000   3.0000000000E+000  109
ZONE T="sat_prof", SOLUTIONTIME=0.171123758384544, I=13
   3.0000000000E-001   3.0000000000E-001   1.0000000000E+000   4.3999999762E-001  -9.9900000000E+002  -9.9900000000E+002   0.0000000000E+000   0.0000000000E+000   0.0000000000E+000   3.0000000000E+000  1
  -1.2232117349E+000  -1.7232117349E+000   6.2114189568E-001   2.7330243262E-001  -9.9900000000E+002  -9.9900000000E+002   0.0000000000E+000   0.0000000000E+000   5.0000000000E-001   3.0000000000E+000  10
  -1.1921126065E+000  -2.1921126065E+000   5.7002265983E-001   2.5080996896E-001  -9.9900000000E+002  -9.9900000000E+002   0.0000000000E+000   0.0000000000E+000   1.0000000000E+000   3.0000000000E+000  19
  -6.9235151769E-001  -2.1923515177E+000   5.7000001234E-001   2.5080000407E-001  -9.9900000000E+002  -9.9900000000E+002   0.0000000000E+000   0.0000000000E+000   1.5000000000E+000   3.0000000000E+000  28
  -3.9235422984E-001  -2.1923542298E+000   5.6999975526E-001   2.5079989095E-001  -9.9900000000E+002  -9.9900000000E+002   0.0000000000E+000   0.0000000000E+000   1.8000000000E+000   3.0000000000E+000  37
  -9.3701021123E-002  -2.1937010211E+000   5.6987214298E-001   2.5074374155E-001  -9.9900000000E+002  -9.9900000000E+002   0.0000000000E+000   0.0000000000E+000   2.1000000000E+000   3.0000000000E+000  46
  -2.0864399111E-001  -2.4586439911E+000   5.4648794114E-001   2.4045469280E-001  -9.9900000000E+002  -9.9900000000E+002   0.0000000000E+000   0.0000000000E+000   2.2500000000E+000   3.0000000000E+000  55
  -7.1329373294E-001  -3.1132937329E+000   5.0029907386E-001   2.2013159131E-001  -9.9900000000E+002  -9.9900000000E+002   0.0000000000E+000   0.0000000000E+000   2.4000000000E+000   3.0000000000E+000  64